    8000
 Properties=species:S:1:pos:R:3:velocities:R:3:forces:R:3:local_energy:R:1:fix_atoms:S:3 Lattice="54.7002325841       0.0000000000    0.0000000000    0.0000000000   54.7002325841    0.0000000000    0.0000000000    0.0000000000   54.7002325841" temperature=302.33336094 pressure=48.23568452 time_step=1.0000 time=300000.000000 energy=-36749.912913 virial="-209.99322455       -22.93667018     22.43044250    -22.93667018   -202.53498272    -37.08471934     22.43044250    -37.08471934   -197.88471322" stress="0.00128303            0.00014014     -0.00013705      0.00014014      0.00123746      0.00022658     -0.00013705      0.00022658      0.00120905" volume=163669.410746 step=300000
 Si            27.39426566      27.52823889      27.18709787      -0.00084986       0.00252071      -0.00250669      -0.77284174      -0.54203241       0.33707067      -4.55240487 F F F
 Si            28.74317328      28.69506609      28.64091583      -0.00688324       0.00090195      -0.00092760       0.34199165       0.76261103       0.57007130      -4.64291958 F F F
 Si            30.08496647      30.20442647      27.32719043       0.00195252       0.00178625       0.00153864      -0.54441716      -0.48344392      -0.18781842      -4.62739079 F F F
 Si            31.46830449      31.50515236      28.66058949      -0.00019517      -0.00033737       0.00162431       0.65545963      -0.11366962      -0.23147449      -4.51813356 F F F
 Si            30.14635721      27.22149537      29.92526892       0.00188255       0.00006201      -0.00398158      -0.39592782       0.01900896       0.32560630      -4.67476819 F F F
 Si            31.44828382      28.56535645      31.35431711       0.00127640       0.00628524      -0.00680974       0.52277782       0.56830646       0.16197005      -4.67160491 F F F
 Si            27.41323534      30.12946144      30.11852740      -0.00219700       0.00403592      -0.00101985      -0.53006850      -0.83238071      -0.53764783      -4.61090295 F F F
 Si            28.83365892      31.39082079      31.39146192      -0.00260020       0.00145685       0.00361527       0.23442604       0.90683597       0.36489387      -4.59970300 F F F
 Si            32.76385185      27.31719820      27.28263068       0.00176094      -0.00416696       0.00326942       1.07769971       0.46446846      -0.15298646      -4.60830177 F F F
 Si            34.20030324      28.64580057      28.74670117      -0.00421654      -0.00206668       0.00068886      -0.07182945      -0.17823501      -0.35481940      -4.66822450 F F F
 Si            35.52127463      30.12640340      27.41628019       0.00473468      -0.00170293       0.00488308       0.96133839      -0.95656630       0.08572466      -4.59281199 F F F
 Si            36.93786284      31.48062328      28.79761444      -0.00209450      -0.00109992      -0.00167140       0.30448802      -0.26575187      -0.47547122      -4.61537374 F F F
 Si            35.54927536      27.26903443      30.19585963       0.00040033       0.00065411       0.00443314      -0.91874094      -0.42614722      -0.84373293      -4.61642137 F F F
 Si            36.85062004      28.64387324      31.43647786      -0.00386389       0.00243895      -0.00602021       0.96095391       0.44711289       0.73651933      -4.53796094 F F F
 Si            32.80423434      30.05323288      29.99114299      -0.00033278       0.00096373       0.00373822      -0.68535319      -0.41264818       0.16287593      -4.54478021 F F F
 Si            34.06441668      31.33204895      31.43430793      -0.00146022      -0.00652615      -0.00047348       0.62849760       0.76709239       0.72795718      -4.65258707 F F F
 Si            38.22835456      27.35296343      27.45273026      -0.00187072       0.00260812       0.00576518       0.08728092      -0.25286866      -0.97376951      -4.52648779 F F F
 Si            39.58680398      28.58559570      28.83570447      -0.00184859       0.00404485      -0.00043652       0.53542182       1.05903318      -0.11686721      -4.60388437 F F F
 Si            40.87114845      30.03344711      27.34743251      -0.00485764       0.00056949      -0.00044147       0.23377405      -0.07008300       0.22125248      -4.67813698 F F F
 Si            42.27131972      31.35340629      28.77239399       0.00308112      -0.00613173       0.00315285       0.29934609      -0.00034317      -0.57058786      -4.54992214 F F F
 Si            41.08143935      27.33114494      30.19281152       0.00662056      -0.00179991       0.00394517      -0.52000333      -0.45135333      -0.53965478      -4.60011782 F F F
 Si            42.42971648      28.68721147      31.47204842      -0.00186552      -0.00154511       0.00029602       0.43226526       0.51169675       0.19206526      -4.64202329 F F F
 Si            38.28293973      30.08552295      30.16127185      -0.00201143      -0.00384247      -0.00266714       0.02156559      -0.43017785      -0.12678259      -4.67791693 F F F
 Si            39.71827714      31.40289849      31.52232838       0.00661465      -0.00277688       0.00318896      -1.03520865       0.89868465      -0.99080969      -4.48674874 F F F
 Si            43.65222757      27.21775189      27.41758897      -0.00238897       0.00017306       0.00353918       0.70674334       1.14710625      -0.55708869      -4.51489647 F F F
 Si            45.15621635      28.52620016      28.70142956      -0.00287046       0.00330016       0.00017955      -0.05259886       0.86801326      -0.45031913      -4.57706399 F F F
 Si            46.45266061      30.07576194      27.33077676       0.00120065      -0.00157791       0.00617441       0.19693630      -0.34873539       0.39841187      -4.65658849 F F F
 Si            47.94188539      31.46324692      28.65738840      -0.00184036      -0.00468553      -0.00194754      -0.84976050      -0.15915754       0.10350609      -4.58466439 F F F
 Si            46.50763205      27.32933773      30.13406883       0.00307665      -0.00207051       0.00683543      -0.45767121      -0.55841991       0.81137872      -4.51285604 F F F
 Si            47.87160966      28.68316132      31.51489176      -0.00641414      -0.00001835       0.00370092      -0.36601402       0.49517474       0.03425127      -4.63197982 F F F
 Si            43.81897043      29.99190734      29.93458425       0.00368312      -0.00274746       0.00024819      -0.77362987      -0.13977935       0.75927859      -4.56930803 F F F
 Si            45.03039665      31.39789999      31.35592399      -0.00083342      -0.00255585      -0.00846305       0.99090339       0.70201348       0.11427557      -4.63811988 F F F
 Si            49.23611445      27.41231305      27.38481796       0.00073709       0.00251039      -0.00247919      -0.17076443      -0.43694086       0.09497279      -4.65830218 F F F
 Si            50.56905222      28.74156289      28.82885147       0.00362534      -0.00510082       0.00495597       0.02461478      -0.23480687      -0.50616848      -4.58448160 F F F
 Si            51.88890868      30.08459461      27.43097052      -0.00076050      -0.00175505       0.00213382      -0.42714133       1.16484181       0.32711592      -4.54513777 F F F
 Si            53.22197420      31.51608981      28.85796145       0.00267369      -0.00124485      -0.00271595       0.59243969      -0.59919584      -0.84810454      -4.69235777 F F F
 Si            52.04210972      27.45475966      30.12563119      -0.00244207       0.00223212       0.00125008      -0.73594384      -0.69601091       0.29787699      -4.56199765 F F F
 Si            53.35534645      28.73813099      31.53302319      -0.00390060      -0.00353947       0.00107106       0.06465528       0.68882380       0.25837992      -4.69372271 F F F
 Si            49.15328203      30.08324907      30.09569908       0.00359567      -0.00043405      -0.00041795       0.08322484      -0.29895580       0.20885224      -4.54104474 F F F
 Si            50.52172500      31.36218439      31.48785135      -0.00044460       0.00159244      -0.00320212      -0.66954808       1.23636662      -0.20337557      -4.51239645 F F F
 Si            54.64337595      27.44910617      27.41598495      -0.00498016      -0.00315403       0.00283025      -0.49014935      -0.44129359      -0.09399820      -4.68870134 F F F
 Si             1.25249328      28.80345845      28.81770044       0.00252257      -0.00455006       0.00214526       0.64847166      -0.47381459      -0.38819287      -4.54441891 F F F
 Si             2.71674372      30.07861098      27.46239744       0.00111700      -0.00158217       0.00190742      -0.51727489      -0.23572747      -0.60919492      -4.57495663 F F F
 Si             4.03544889      31.43298095      28.77600176       0.00346876      -0.00392057      -0.00286923       0.05169747       1.38023831      -0.27425002      -4.60863288 F F F
 Si             2.54956267      27.35496145      30.16266190       0.00044942       0.00198133       0.00390902       1.18283866       0.77562336      -0.54945600      -4.59788694 F F F
 Si             4.08234075      28.75998964      31.41347433       0.00240423       0.00239660      -0.00125348       0.27678279      -0.63811330      -0.42444980      -4.58560539 F F F
 Si             0.01581061      30.17982133      30.16332625      -0.00196155      -0.00655064       0.00164741      -1.18853378      -0.06830641       0.07997489      -4.52602740 F F F
 Si             1.26797512      31.57100090      31.48805315      -0.00551412       0.00206121       0.00179908       0.54233376      -0.24285858       0.89344841      -4.68922756 F F F
 Si             5.35172871      27.32679427      27.37572529       0.00547718       0.00067672       0.00076281       0.42979598      -0.52284471       0.07128991      -4.65735952 F F F
 Si             6.73130365      28.74610081      28.68955389       0.00070689       0.00107082       0.00336014       0.57135380      -0.64130003      -0.30701449      -4.57571159 F F F
 Si             8.20696259      30.06140905      27.34509370      -0.00168390      -0.00676746       0.00656322      -0.20452205       0.46306722      -0.12807106      -4.67906983 F F F
 Si             9.59769677      31.44274024      28.75339037       0.00320975       0.00147204       0.00157317      -0.62588710      -0.66522751      -0.00852184      -4.60824999 F F F
 Si             8.03511921      27.15512546      29.97462082       0.00139104       0.00505594       0.00059360       0.52311977       1.28823808       0.50939244      -4.64692897 F F F
 Si             9.50971087      28.57324355      31.37934921      -0.00083842      -0.00181719       0.00322293      -0.20402645      -0.26254646      -0.08008818      -4.70642617 F F F
 Si             5.44453907      30.12789103      30.01920885       0.00020192       0.00358225       0.00031553       0.27735006      -0.02287609       1.13050814      -4.53497879 F F F
 Si             6.85118467      31.43913683      31.51565034       0.00031786      -0.00207173       0.00150594       0.01081069      -0.35876744      -0.86386421      -4.64954478 F F F
 Si            10.95703155      27.28742941      27.39175928      -0.00207665       0.00655403      -0.00071646       0.42446826       1.07579861      -0.90017747      -4.64339348 F F F
 Si            12.33984301      28.75871149      28.69991265       0.00521014       0.00769034       0.00471032      -0.30397881      -0.17870670      -0.37621864      -4.65540868 F F F
 Si            13.63344166      30.19131390      27.29882180      -0.00515299       0.00243977       0.00094212       0.23991797      -1.34032624       0.24769789      -4.41377533 F F F
 Si            14.89143579      31.44642856      28.71727348      -0.00163223      -0.00631731       0.00072817       0.83181485       0.60945576       1.07276754      -4.63393695 F F F
 Si            13.72730879      27.44048552      30.04501959      -0.00352963       0.00221710       0.00046112      -0.37859909      -0.62120931       0.47632454      -4.66906561 F F F
 Si            15.14041951      28.78923406      31.35800226      -0.00045277       0.00047457       0.00029237      -0.06096861      -0.31914317      -0.01836541      -4.59257948 F F F
 Si            10.89684639      30.00435145      30.06546841      -0.00178164      -0.00042632       0.00028672      -0.22450599      -0.23109698       0.11560406      -4.55334645 F F F
 Si            12.17754246      31.31974239      31.48759342      -0.00083498      -0.00696555      -0.00382079       0.10591460       0.60143408       0.15972204      -4.65813677 F F F
 Si            16.27771419      27.49711265      27.40278860       0.00435489      -0.00305132       0.00020094       1.50264105       0.04479556      -0.92073641      -4.57966216 F F F
 Si            17.82716091      28.79906570      28.67161705      -0.00000579       0.00146695      -0.00087687       0.13148893      -0.52588385      -0.17227043      -4.55417870 F F F
 Si            19.26667330      30.01835700      27.27461420       0.00107893       0.00145538      -0.00263114      -0.06340334       0.58763874      -0.01203056      -4.69737700 F F F
 Si            20.63792858      31.48852323      28.67173076       0.00239340       0.00820637       0.00351184      -1.08329488      -0.25101966      -0.16996312      -4.57364584 F F F
 Si            19.18932693      27.44322097      30.08041550      -0.00318960      -0.00278813       0.00063474      -0.31725718      -0.60616395      -0.40757258      -4.66845421 F F F
 Si            20.58291548      28.75724804      31.39077525       0.00038259      -0.00123794      -0.00082651      -0.24664390       0.61094243       0.06164270      -4.46981411 F F F
 Si            16.52856305      30.14813089      30.02252633       0.00098112       0.00925384      -0.00046866      -0.80550911       0.51214447       0.06293365      -4.62509286 F F F
 Si            17.86900536      31.51821503      31.40547665      -0.00614200      -0.00071078      -0.00048039      -0.00144222      -0.41285693      -0.27130632      -4.53819609 F F F
 Si            21.86584502      27.23868875      27.41418002      -0.00245421      -0.00508189       0.00164935       0.50616029       0.77047948      -0.80850283      -4.62461860 F F F
 Si            23.19096185      28.75894516      28.67650744       0.00053641       0.00041996       0.00202655       0.25957989      -0.24050966       0.56654675      -4.67874503 F F F
 Si            24.55333335      30.14030094      27.36457919      -0.00439060      -0.00009567       0.00122513      -0.24116564       0.45981005      -0.22937767      -4.62717876 F F F
 Si            25.88852596      31.48691361      28.84881470       0.00369160      -0.00046362      -0.00142503       0.36282203      -0.49218794      -0.55708852      -4.58080067 F F F
 Si            24.70143393      27.41419829      30.03473030       0.00029622      -0.00181637      -0.00033860      -0.55282975       0.32418728       0.17602510      -4.65146474 F F F
 Si            26.02644257      28.75068188      31.53716093       0.00004132       0.00272880      -0.00560657      -0.09222476       0.10402759      -0.96832444      -4.62974737 F F F
 Si            21.89431699      30.20415736      30.10847169      -0.00293676       0.00025727      -0.00642145      -0.11527414      -1.46681220      -0.91433907      -4.45474899 F F F
 Si            23.18065050      31.43858782      31.45289622      -0.00031406      -0.00452159       0.00191059       0.78903867       0.27512737       1.14121828      -4.53764135 F F F
 Si            27.20850784      32.79784101      27.38517492      -0.00332563       0.00725598      -0.00160445       0.66315596       0.37610837      -0.49872463      -4.58593654 F F F
 Si            28.76773297      34.15193466      28.60082767      -0.00054795       0.00245712       0.00082689      -0.50111377       0.81096681      -0.28086847      -4.59211445 F F F
 Si            30.13165052      35.71228264      27.23484988      -0.00225236       0.00150015      -0.00358958      -0.04181881      -0.92548361       0.79600513      -4.60757787 F F F
 Si            31.50122620      36.95095226      28.71555097      -0.00178872      -0.00223278       0.00184709      -0.35734938       0.36563662      -0.12233452      -4.60240630 F F F
 Si            30.15303668      32.88253854      29.94501901       0.00060479      -0.00004803       0.00547914       0.10345671       0.02155074       1.57395256      -4.57970528 F F F
 Si            31.54735136      34.26266054      31.47959827       0.00229412       0.00152214       0.00306327      -0.82029702      -0.38070946      -0.52115739      -4.65370610 F F F
 Si            27.36581794      35.49473305      30.04562906      -0.00206734       0.00075727       0.00818206       0.19137247      -0.27742428       0.60245364      -4.64151588 F F F
 Si            28.73901487      36.86534726      31.49896783       0.00397077       0.00121363       0.00304754      -0.49891851      -0.41145971      -0.81621887      -4.50030530 F F F
 Si            32.92510456      32.79750952      27.28061772       0.00472740      -0.00002346      -0.00153406       0.21485390       0.08835453       0.55969218      -4.63401337 F F F
 Si            34.31443020      34.14776253      28.71152897       0.00071655       0.00118495       0.00971231      -0.60792113       0.05634172       0.63491638      -4.70434949 F F F
 Si            35.58895271      35.58824623      27.35760160       0.00175136       0.00245756       0.00008840      -0.03824557      -0.23474320      -0.55622000      -4.64805521 F F F
 Si            37.01506687      36.94545926      28.64268463       0.00009207       0.00113291       0.00096630       0.09424992      -0.38835685      -0.24183254      -4.55879794 F F F
 Si            35.60816626      32.73443282      30.22323260       0.00161078      -0.00244805       0.00153505      -0.93421164       0.19557748      -0.62877356      -4.56554825 F F F
 Si            37.00285699      34.12773781      31.41972956      -0.00061257       0.00110057       0.00181186      -0.35209344       0.49615564       0.24146217      -4.55863963 F F F
 Si            32.82922628      35.62165333      30.05706248      -0.00095940      -0.00554684      -0.00143890       0.65244406      -0.97193391      -0.11670247      -4.59240669 F F F
 Si            34.23257100      36.92213107      31.40791610      -0.00027224      -0.00288627      -0.00435730       0.06083812      -0.57415604      -0.11906168      -4.48990215 F F F
 Si            38.31032953      32.88932115      27.39603577       0.00242238      -0.00271213      -0.00013396      -0.53485266      -0.57605310      -0.44291055      -4.63603017 F F F
 Si            39.74067983      34.19758791      28.66337025      -0.00737351      -0.00357178       0.00008076      -0.09384893       0.03766045       0.54242625      -4.52440138 F F F
 Si            40.97923431      35.71026573      27.40493831      -0.00421162      -0.00336978       0.00100716       1.32827557      -0.90238895      -0.20511116      -4.56050678 F F F
 Si            42.45671816      36.98445236      28.77995130      -0.00220754       0.00264168       0.00099298      -0.30001474      -0.57861991       0.08389799      -4.53964439 F F F
 Si            41.04076316      32.81269268      30.10482197      -0.00221465      -0.00154402       0.00587686      -0.18337124       0.11307743       0.52924786      -4.64448329 F F F
 Si            42.34767454      34.22276856      31.54628390       0.00278544       0.00167717       0.00359734       0.38827653      -0.01653548      -1.05056193      -4.57181498 F F F
 Si            38.29618126      35.49694598      29.98871401      -0.00654233       0.00061384      -0.00592307      -0.07887593      -0.00210855       0.16595093      -4.61926273 F F F
 Si            39.55822497      36.92254140      31.34827232      -0.00172537      -0.00329478      -0.00523573       0.28424040       0.19917031       0.47294963      -4.57477636 F F F
 Si            43.58537656      32.81344663      27.42476754       0.00244353       0.00243187       0.00516117       0.57466980      -0.08386094      -0.43824146      -4.68227504 F F F
 Si            45.13277151      34.14004610      28.72313378       0.00022113       0.00104372      -0.00254690      -0.13703075       0.49001925      -0.54765585      -4.63671862 F F F
 Si            46.45871393      35.68447557      27.31931594      -0.00264352      -0.00065695      -0.00301661      -0.74276207      -1.46375037      -0.23450445      -4.48692746 F F F
 Si            47.77582243      37.01810926      28.56285898       0.00233779       0.00279671       0.00095243       0.91624029       0.49085985       0.77224062      -4.52002121 F F F
 Si            46.57035597      32.84036344      30.03034578      -0.00098166      -0.00127049       0.00245353      -0.78743271      -0.69007434       0.35214312      -4.62791920 F F F
 Si            47.75138764      34.30641050      31.40749318       0.00024279       0.00196373      -0.00238116       0.51350571      -0.75039975      -0.22039043      -4.49215961 F F F
 Si            43.78099734      35.53202373      30.08783786       0.00094513       0.00374427      -0.00373251      -0.07616949      -0.17937647       0.42171649      -4.67293169 F F F
 Si            45.12664226      36.92566804      31.48360407      -0.00475518      -0.00216176      -0.00210722      -0.25552609       0.30537920      -0.44681938      -4.61391779 F F F
 Si            49.33654795      32.81737150      27.39008671       0.00104575       0.00250364       0.00047573      -0.68220097       0.12129372      -1.09035990      -4.58718522 F F F
 Si            50.62661700      34.09779016      28.79350534       0.00031805      -0.00281417       0.00361748      -0.05452124       0.60293450       0.18936331      -4.54388454 F F F
 Si            51.87864229      35.53644499      27.38837128      -0.00044273       0.00215638      -0.00452905       0.17575930      -0.19781584      -0.03699037      -4.63721938 F F F
 Si            53.26791009      36.80710615      28.81657056       0.00041830       0.00306875      -0.00132596       0.55513725       0.09459241      -0.50910206      -4.55020745 F F F
 Si            51.93733420      32.80889246      30.29276953      -0.00451554      -0.00452118       0.00180300       0.08599241       0.40092838      -0.34565070      -4.53903964 F F F
 Si            53.45222689      34.19205800      31.50653687       0.00155723       0.00290869      -0.00392712      -0.95423507       0.47901565       0.32727290      -4.66362219 F F F
 Si            49.06098649      35.52667573      29.90062577      -0.00435121       0.00033901      -0.00317638       0.73090595       0.26743939       0.52899189      -4.66144514 F F F
 Si            50.44261681      36.79760991      31.43226718      -0.00015932       0.00128032       0.00306716       0.13926836       0.71349455      -0.47325166      -4.62538439 F F F
 Si            54.69795358      32.69824018      27.32569531       0.00337458       0.00164695      -0.00231467      -0.86152638       0.67879458       0.69430735      -4.61104109 F F F
 Si             1.29290035      34.15564494      28.69711070      -0.00300895       0.00218646       0.00419085      -0.14635686       0.16525042      -0.58432152      -4.44193281 F F F
 Si             2.64698884      35.53274597      27.37939809      -0.00257389       0.00261015       0.00329737       1.30457941      -0.10834289       0.12020123      -4.67165717 F F F
 Si             4.09754688      36.89620572      28.78076178      -0.00490488      -0.00357820      -0.00182041      -1.00210699      -0.01623481      -0.20350852      -4.65341016 F F F
 Si             2.61091021      32.94105262      30.08764690      -0.00106394      -0.00038632       0.00069681       0.26706998      -1.45533452      -0.10628074      -4.52281139 F F F
 Si             3.95708866      34.19561117      31.41192732      -0.00205417      -0.00240755       0.00397961       1.01292091       0.40963041       0.79347596      -4.52222278 F F F
 Si             0.14174705      35.58008450      30.14617374       0.00460536      -0.00572190      -0.00006886      -0.73683060      -0.19725485       0.04372079      -4.62896962 F F F
 Si             1.45252945      36.93264719      31.58814543       0.00231858      -0.00246619      -0.00400440      -0.26350246      -0.53011150       0.25255273      -4.58403526 F F F
 Si             5.51231997      32.81849142      27.38393959      -0.00490181       0.00385353      -0.00101542      -0.28741029      -0.58655695       0.16484382      -4.57216424 F F F
 Si             6.85778890      34.07502376      28.81526970       0.00109591       0.00523127       0.00240684      -0.57691815       0.63041476       0.20404995      -4.61163107 F F F
 Si             8.09225661      35.51774960      27.45354146       0.00046893      -0.00128751      -0.00174977       0.44333184      -0.21185418      -0.92828589      -4.61508885 F F F
 Si             9.42341627      36.93198902      28.70720496       0.00144550      -0.00287532       0.00180626       0.81982118       0.05401048       0.75624342      -4.57185407 F F F
 Si             8.27759330      32.80162156      30.16003486       0.00024365       0.00103378       0.00053033      -1.03492829      -1.18172356      -0.74649013      -4.50398458 F F F
 Si             9.58505426      34.14263475      31.33593286      -0.00441166      -0.00102312       0.00171308       0.54874951       0.75194912       0.67362259      -4.27047769 F F F
 Si             5.41195507      35.52238126      30.13650308      -0.00050508       0.00059728       0.00341105       0.44890515      -0.27829358      -0.29206541      -4.62542691 F F F
 Si             6.81661457      36.82102398      31.50729579       0.00020875       0.00147504       0.00254480      -0.35417579       0.26885490       0.24951026      -4.60156204 F F F
 Si            10.93409842      32.70279471      27.37642291      -0.00059565       0.00318215       0.00611680      -0.12074166       1.20138777      -0.25890826      -4.54799505 F F F
 Si            12.24508948      34.22620212      28.63425792      -0.00133127       0.00068091       0.00578571      -0.12859845      -0.65037004       0.40638805      -4.53810742 F F F
 Si            13.59709787      35.60914999      27.36748978      -0.00372763       0.00263814       0.00548330       1.06282916      -0.48748499      -0.47181646      -4.58106080 F F F
 Si            15.00659541      36.97637253      28.72700783       0.00255145      -0.00288736      -0.00620541       0.03985067      -1.00027603      -0.17413309      -4.47819002 F F F
 Si            13.43498642      32.82271517      30.14780346      -0.00342132       0.00470002      -0.00016718       0.57828214      -0.54543222      -0.70117321      -4.68728344 F F F
 Si            14.88204468      34.06207243      31.48806663      -0.00016556       0.00003672      -0.00283735       0.87789838      -0.25787458      -0.87979297      -4.48879271 F F F
 Si            10.90487721      35.52861239      30.00842439      -0.00075601      -0.00132663       0.00356010      -0.38512780       0.63444375      -0.04696188      -4.65931816 F F F
 Si            12.26073868      36.81255642      31.47314839      -0.00121762      -0.00258264      -0.00182390       0.08552847       0.19924421      -0.29961042      -4.66645919 F F F
 Si            16.37555779      32.74577502      27.41257793      -0.00087022       0.00601030      -0.00005627      -0.32030554       0.45762923      -0.26632543      -4.55759016 F F F
 Si            17.68462034      34.18517827      28.72467849       0.00166920      -0.00069392      -0.00244506       0.30733980       0.15049588       0.09149209      -4.65073808 F F F
 Si            19.08553089      35.62426435      27.40732114      -0.00002903      -0.00142186       0.00446582       0.35618852      -0.98885255      -0.29141733      -4.58122647 F F F
 Si            20.49564701      36.74747027      28.88461290       0.00391983      -0.00339955      -0.00196497      -0.01092176       1.29941990      -0.85325756      -4.60202346 F F F
 Si            19.20137482      32.84158749      29.99921616       0.00095554       0.00660312       0.00329206      -0.21239686       0.34037555       0.05872460      -4.63780610 F F F
 Si            20.43885878      34.17604578      31.52435073      -0.00639784       0.00053077       0.00175898       0.14320443      -0.14793336      -0.51356136      -4.66469715 F F F
 Si            16.24398078      35.49232128      30.12361792      -0.00047536      -0.00272100      -0.00024053       0.00970988      -0.39518872      -0.35108924      -4.68848799 F F F
 Si            17.61019378      36.75645994      31.51885654      -0.00088010      -0.00106133      -0.00029486       0.46741579       0.54715035      -0.49481846      -4.53326743 F F F
 Si            21.91939068      32.84425112      27.32924002      -0.00183209       0.00761475      -0.00083196      -0.04137574       0.81649772      -0.57893079      -4.59830469 F F F
 Si            23.25469869      34.31626280      28.67037891      -0.00104695       0.00485354       0.00107748       0.32111817      -1.33855835      -0.00042550      -4.53857031 F F F
 Si            24.63746279      35.65882267      27.36334528       0.00335088       0.00483206       0.00262747       0.82360390       0.35510000      -0.11748461      -4.63217311 F F F
 Si            26.09528973      37.03802756      28.84110903       0.00228788       0.00061733       0.00115383      -0.77392366      -0.87031837      -0.79458906      -4.53854348 F F F
 Si            24.48337228      32.81752627      30.12381744       0.00536301      -0.00042634      -0.00500687       0.07795404       0.82020936      -0.21477539      -4.53814317 F F F