    8000
 Properties=species:S:1:pos:R:3:velocities:R:3:forces:R:3:local_energy:R:1:fix_atoms:S:3 Lattice="54.7002325841       0.0000000000    0.0000000000    0.0000000000   54.7002325841    0.0000000000    0.0000000000    0.0000000000   54.7002325841" temperature=12966.72538972 pressure=85503.10322978 time_step=0.0333 time=0.000000 energy=-36749.886456 virial="-209.97006345       -22.93664088     22.43041086    -22.93664088   -202.51182081    -37.08467772     22.43041086    -37.08467772   -197.86157688" stress="0.00128289            0.00014014     -0.00013705      0.00014014      0.00123732      0.00022658     -0.00013705      0.00022658      0.00120891" volume=163669.410747 step=0
 Si            27.39426566      27.52823889      27.18709787      -0.00047481       0.00252102      -0.00250700      -0.77283996      -0.54203007       0.33706871      -4.55240146 F F F
 Si            28.74317328      28.69506609      28.64091583      -0.00650819       0.00090226      -0.00092791       0.34199075       0.76260884       0.57007003      -4.64291635 F F F
 Si            30.08496647      30.20442647      27.32719043       0.00232757       0.00178656       0.00153833      -0.54441564      -0.48344213      -0.18781780      -4.62738743 F F F
 Si            31.46830449      31.50515236      28.66058949       0.00017988      -0.00033706       0.00162400       0.65545874      -0.11366938      -0.23147400      -4.51813007 F F F
 Si            30.14635721      27.22149537      29.92526892       0.00225760       0.00006232      -0.00398189      -0.39592640       0.01900769       0.32560456      -4.67476498 F F F
 Si            31.44828382      28.56535645      31.35431711       0.00165145       0.00628555      -0.00681005       0.52277677       0.56830442       0.16196993      -4.67160171 F F F
 Si            27.41323534      30.12946144      30.11852740      -0.00182195       0.00403623      -0.00102016      -0.53006741      -0.83237906      -0.53764703      -4.61089969 F F F
 Si            28.83365892      31.39082079      31.39146192      -0.00222515       0.00145716       0.00361496       0.23442686       0.90683416       0.36489292      -4.59969981 F F F
 Si            32.76385185      27.31719820      27.28263068       0.00213599      -0.00416665       0.00326911       1.07769672       0.46446769      -0.15298651      -4.60829852 F F F
 Si            34.20030324      28.64580057      28.74670117      -0.00384149      -0.00206637       0.00068855      -0.07182892      -0.17823557      -0.35481843      -4.66822128 F F F
 Si            35.52127463      30.12640340      27.41628019       0.00510973      -0.00170262       0.00488277       0.96133571      -0.95656319       0.08572506      -4.59280876 F F F
 Si            36.93786284      31.48062328      28.79761444      -0.00171945      -0.00109961      -0.00167171       0.30448771      -0.26575086      -0.47547048      -4.61537038 F F F
 Si            35.54927536      27.26903443      30.19585963       0.00077538       0.00065442       0.00443283      -0.91873878      -0.42614716      -0.84373049      -4.61641801 F F F
 Si            36.85062004      28.64387324      31.43647786      -0.00348884       0.00243926      -0.00602052       0.96095181       0.44711227       0.73651720      -4.53795755 F F F
 Si            32.80423434      30.05323288      29.99114299       0.00004227       0.00096404       0.00373791      -0.68535219      -0.41264671       0.16287455      -4.54477682 F F F
 Si            34.06441668      31.33204895      31.43430793      -0.00108517      -0.00652584      -0.00047379       0.62849523       0.76709049       0.72795542      -4.65258386 F F F
 Si            38.22835456      27.35296343      27.45273026      -0.00149567       0.00260843       0.00576487       0.08728031      -0.25286770      -0.97376710      -4.52648436 F F F
 Si            39.58680398      28.58559570      28.83570447      -0.00147354       0.00404516      -0.00043683       0.53542038       1.05902932      -0.11686619      -4.60388109 F F F
 Si            40.87114845      30.03344711      27.34743251      -0.00448259       0.00056980      -0.00044178       0.23377216      -0.07008295       0.22125167      -4.67813387 F F F
 Si            42.27131972      31.35340629      28.77239399       0.00345617      -0.00613142       0.00315254       0.29934470      -0.00034423      -0.57058545      -4.54991880 F F F
 Si            41.08143935      27.33114494      30.19281152       0.00699561      -0.00179960       0.00394486      -0.52000162      -0.45135265      -0.53965330      -4.60011439 F F F
 Si            42.42971648      28.68721147      31.47204842      -0.00149047      -0.00154480       0.00029571       0.43226469       0.51169586       0.19206514      -4.64202001 F F F
 Si            38.28293973      30.08552295      30.16127185      -0.00163638      -0.00384216      -0.00266745       0.02156564      -0.43017642      -0.12678162      -4.67791360 F F F
 Si            39.71827714      31.40289849      31.52232838       0.00698970      -0.00277657       0.00318865      -1.03520612       0.89868286      -0.99080717      -4.48674529 F F F
 Si            43.65222757      27.21775189      27.41758897      -0.00201392       0.00017337       0.00353887       0.70674084       1.14710313      -0.55708727      -4.51489309 F F F
 Si            45.15621635      28.52620016      28.70142956      -0.00249541       0.00330047       0.00017924      -0.05259860       0.86800969      -0.45031859      -4.57706065 F F F
 Si            46.45266061      30.07576194      27.33077676       0.00157570      -0.00157760       0.00617410       0.19693553      -0.34873394       0.39841113      -4.65658532 F F F
 Si            47.94188539      31.46324692      28.65738840      -0.00146531      -0.00468522      -0.00194785      -0.84975809      -0.15915753       0.10350547      -4.58466100 F F F
 Si            46.50763205      27.32933773      30.13406883       0.00345170      -0.00207020       0.00683512      -0.45766971      -0.55841815       0.81137761      -4.51285269 F F F
 Si            47.87160966      28.68316132      31.51489176      -0.00603909      -0.00001804       0.00370061      -0.36601284       0.49517334       0.03425130      -4.63197646 F F F
 Si            43.81897043      29.99190734      29.93458425       0.00405817      -0.00274715       0.00024788      -0.77362767      -0.13977905       0.75927485      -4.56930475 F F F
 Si            45.03039665      31.39789999      31.35592399      -0.00045837      -0.00255554      -0.00846336       0.99090002       0.70201172       0.11427475      -4.63811679 F F F
 Si            49.23611445      27.41231305      27.38481796      -2.99932565       0.00000031      -0.00000031      -0.17076347      -0.43693973       0.09497259      -4.65829882 F F F
 Si            50.56905222      28.74156289      28.82885147       0.00400039      -0.00510051       0.00495566       0.02461487      -0.23480645      -0.50616629      -4.58447811 F F F
 Si            51.88890868      30.08459461      27.43097052      -0.00038545      -0.00175474       0.00213351      -0.42714093       1.16483889       0.32711561      -4.54513446 F F F
 Si            53.22197420      31.51608981      28.85796145       0.00304874      -0.00124454      -0.00271626       0.59243779      -0.59919399      -0.84810210      -4.69235458 F F F
 Si            52.04210972      27.45475966      30.12563119      -0.00206702       0.00223243       0.00124977      -0.73594130      -0.69600848       0.29787570      -4.56199427 F F F
 Si            53.35534645      28.73813099      31.53302319      -0.00352555      -0.00353916       0.00107075       0.06465574       0.68882239       0.25838002      -4.69371946 F F F
 Si            49.15328203      30.08324907      30.09569908       0.00397072      -0.00043374      -0.00041826       0.08322392      -0.29895490       0.20885167      -4.54104120 F F F
 Si            50.52172500      31.36218439      31.48785135      -0.00006955       0.00159275      -0.00320243      -0.66954715       1.23636257      -0.20337571      -4.51239306 F F F
 Si            54.64337595      27.44910617      27.41598495      -0.00460511      -0.00315372       0.00282994      -0.49014781      -0.44129181      -0.09399762      -4.68869809 F F F
 Si             1.25249328      28.80345845      28.81770044       0.00289762      -0.00454975       0.00214495       0.64846971      -0.47381307      -0.38819151      -4.54441542 F F F
 Si             2.71674372      30.07861098      27.46239744       0.00149205      -0.00158186       0.00190711      -0.51727358      -0.23572767      -0.60919314      -4.57495322 F F F
 Si             4.03544889      31.43298095      28.77600176       0.00384381      -0.00392026      -0.00286954       0.05169685       1.38023556      -0.27424875      -4.60862959 F F F
 Si             2.54956267      27.35496145      30.16266190       0.00082447       0.00198164       0.00390871       1.18283517       0.77562219      -0.54945467      -4.59788359 F F F
 Si             4.08234075      28.75998964      31.41347433       0.00277928       0.00239691      -0.00125379       0.27678265      -0.63811200      -0.42444984      -4.58560202 F F F
 Si             0.01581061      30.17982133      30.16332625      -0.00158650      -0.00655033       0.00164710      -1.18853015      -0.06830601       0.07997461      -4.52602400 F F F
 Si             1.26797512      31.57100090      31.48805315      -0.00513907       0.00206152       0.00179877       0.54233207      -0.24285691       0.89344647      -4.68922440 F F F
 Si             5.35172871      27.32679427      27.37572529       0.00585223       0.00067703       0.00076250       0.42979469      -0.52284427       0.07129007      -4.65735627 F F F
 Si             6.73130365      28.74610081      28.68955389       0.00108194       0.00107113       0.00335983       0.57135254      -0.64129786      -0.30701359      -4.57570830 F F F
 Si             8.20696259      30.06140905      27.34509370      -0.00130885      -0.00676715       0.00656291      -0.20452133       0.46306608      -0.12807014      -4.67906660 F F F
 Si             9.59769677      31.44274024      28.75339037       0.00358480       0.00147235       0.00157286      -0.62588554      -0.66522537      -0.00852108      -4.60824654 F F F
 Si             8.03511921      27.15512546      29.97462082       0.00176609       0.00505625       0.00059329       0.52311704       1.28823304       0.50939009      -4.64692600 F F F
 Si             9.50971087      28.57324355      31.37934921      -0.00046337      -0.00181688       0.00322262      -0.20402612      -0.26254618      -0.08008842      -4.70642305 F F F
 Si             5.44453907      30.12789103      30.01920885       0.00057697       0.00358256       0.00031522       0.27735001      -0.02287566       1.13050537      -4.53497536 F F F
 Si             6.85118467      31.43913683      31.51565034       0.00069291      -0.00207142       0.00150563       0.01081126      -0.35876670      -0.86386174      -4.64954148 F F F
 Si            10.95703155      27.28742941      27.39175928      -0.00170160       0.00655434      -0.00071677       0.42446798       1.07579506      -0.90017504      -4.64339029 F F F
 Si            12.33984301      28.75871149      28.69991265       0.00558519       0.00769065       0.00471001      -0.30397765      -0.17870559      -0.37621801      -4.65540528 F F F
 Si            13.63344166      30.19131390      27.29882180      -0.00477794       0.00244008       0.00094181       0.23991727      -1.34032289       0.24769698      -4.41377182 F F F
 Si            14.89143579      31.44642856      28.71727348      -0.00125718      -0.00631700       0.00072786       0.83181218       0.60945393       1.07276551      -4.63393386 F F F
 Si            13.72730879      27.44048552      30.04501959      -0.00315458       0.00221741       0.00046081      -0.37859811      -0.62120763       0.47632338      -4.66906234 F F F
 Si            15.14041951      28.78923406      31.35800226      -0.00007772       0.00047488       0.00029206      -0.06096803      -0.31914130      -0.01836540      -4.59257607 F F F
 Si            10.89684639      30.00435145      30.06546841      -0.00140659      -0.00042601       0.00028641      -0.22450557      -0.23109666       0.11560353      -4.55334296 F F F
 Si            12.17754246      31.31974239      31.48759342      -0.00045993      -0.00696524      -0.00382110       0.10591436       0.60143154       0.15972271      -4.65813352 F F F
 Si            16.27771419      27.49711265      27.40278860       0.00472994      -0.00305101       0.00020063       1.50263678       0.04479650      -0.92073342      -4.57965889 F F F
 Si            17.82716091      28.79906570      28.67161705       0.00036926       0.00146726      -0.00087718       0.13148874      -0.52588265      -0.17227053      -4.55417528 F F F
 Si            19.26667330      30.01835700      27.27461420       0.00145398       0.00145569      -0.00263145      -0.06340207       0.58763694      -0.01203074      -4.69737379 F F F
 Si            20.63792858      31.48852323      28.67173076       0.00276845       0.00820668       0.00351153      -1.08329160      -0.25101907      -0.16996271      -4.57364245 F F F
 Si            19.18932693      27.44322097      30.08041550      -0.00281455      -0.00278782       0.00063443      -0.31725601      -0.60616220      -0.40757155      -4.66845090 F F F
 Si            20.58291548      28.75724804      31.39077525       0.00075764      -0.00123763      -0.00082682      -0.24664280       0.61094131       0.06164193      -4.46981060 F F F
 Si            16.52856305      30.14813089      30.02252633       0.00135617       0.00925415      -0.00046897      -0.80550667       0.51214365       0.06293347      -4.62508958 F F F
 Si            17.86900536      31.51821503      31.40547665      -0.00576695      -0.00071047      -0.00048070      -0.00144177      -0.41285507      -0.27130535      -4.53819268 F F F
 Si            21.86584502      27.23868875      27.41418002      -0.00207916      -0.00508158       0.00164904       0.50615918       0.77047726      -0.80850039      -4.62461527 F F F
 Si            23.19096185      28.75894516      28.67650744       0.00091146       0.00042027       0.00202624       0.25957805      -0.24050905       0.56654545      -4.67874180 F F F
 Si            24.55333335      30.14030094      27.36457919      -0.00401555      -0.00009536       0.00122482      -0.24116477       0.45980906      -0.22937708      -4.62717545 F F F
 Si            25.88852596      31.48691361      28.84881470       0.00406665      -0.00046331      -0.00142534       0.36282075      -0.49218703      -0.55708628      -4.58079735 F F F
 Si            24.70143393      27.41419829      30.03473030       0.00067127      -0.00181606      -0.00033891      -0.55282791       0.32418688       0.17602484      -4.65146151 F F F
 Si            26.02644257      28.75068188      31.53716093       0.00041637       0.00272911      -0.00560688      -0.09222465       0.10402780      -0.96832155      -4.62974399 F F F
 Si            21.89431699      30.20415736      30.10847169      -0.00256171       0.00025758      -0.00642176      -0.11527459      -1.46680852      -0.91433643      -4.45474551 F F F
 Si            23.18065050      31.43858782      31.45289622       0.00006099      -0.00452128       0.00191028       0.78903679       0.27512661       1.14121642      -4.53763791 F F F
 Si            27.20850784      32.79784101      27.38517492      -0.00295058       0.00725629      -0.00160476       0.66315300       0.37610664      -0.49872275      -4.58593339 F F F
 Si            28.76773297      34.15193466      28.60082767      -0.00017290       0.00245743       0.00082658      -0.50111213       0.81096470      -0.28086892      -4.59211130 F F F
 Si            30.13165052      35.71228264      27.23484988      -0.00187731       0.00150046      -0.00358989      -0.04181889      -0.92548059       0.79600250      -4.60757466 F F F
 Si            31.50122620      36.95095226      28.71555097      -0.00141367      -0.00223247       0.00184678      -0.35734798       0.36563606      -0.12233467      -4.60240298 F F F
 Si            30.15303668      32.88253854      29.94501901       0.00097984      -0.00004772       0.00547883       0.10345722       0.02155117       1.57394882      -4.57970205 F F F
 Si            31.54735136      34.26266054      31.47959827       0.00266917       0.00152245       0.00306296      -0.82029467      -0.38070797      -0.52115579      -4.65370288 F F F
 Si            27.36581794      35.49473305      30.04562906      -0.00169229       0.00075758       0.00818175       0.19137218      -0.27742394       0.60245165      -4.64151275 F F F
 Si            28.73901487      36.86534726      31.49896783       0.00434582       0.00121394       0.00304723      -0.49891740      -0.41145841      -0.81621648      -4.50030184 F F F
 Si            32.92510456      32.79750952      27.28061772       0.00510245      -0.00002315      -0.00153437       0.21485328       0.08835379       0.55969030      -4.63401003 F F F
 Si            34.31443020      34.14776253      28.71152897       0.00109160       0.00118526       0.00971200      -0.60791888       0.05634129       0.63491516      -4.70434648 F F F
 Si            35.58895271      35.58824623      27.35760160       0.00212641       0.00245787       0.00008809      -0.03824542      -0.23474194      -0.55621851      -4.64805192 F F F
 Si            37.01506687      36.94545926      28.64268463       0.00046712       0.00113322       0.00096599       0.09425011      -0.38835494      -0.24183199      -4.55879452 F F F
 Si            35.60816626      32.73443282      30.22323260       0.00198583      -0.00244774       0.00153474      -0.93420947       0.19557650      -0.62877015      -4.56554497 F F F
 Si            37.00285699      34.12773781      31.41972956      -0.00023752       0.00110088       0.00181155      -0.35209185       0.49615488       0.24146117      -4.55863619 F F F
 Si            32.82922628      35.62165333      30.05706248      -0.00058435      -0.00554653      -0.00143921       0.65244238      -0.97193095      -0.11670250      -4.59240337 F F F
 Si            34.23257100      36.92213107      31.40791610       0.00010281      -0.00288596      -0.00435761       0.06083858      -0.57415426      -0.11906120      -4.48989864 F F F
 Si            38.31032953      32.88932115      27.39603577       0.00279743      -0.00271182      -0.00013427      -0.53485149      -0.57605127      -0.44290908      -4.63602683 F F F
 Si            39.74067983      34.19758791      28.66337025      -0.00699846      -0.00357147       0.00008045      -0.09384742       0.03766003       0.54242481      -4.52439791 F F F
 Si            40.97923431      35.71026573      27.40493831      -0.00383657      -0.00336947       0.00100685       1.32827225      -0.90238515      -0.20510920      -4.56050353 F F F
 Si            42.45671816      36.98445236      28.77995130      -0.00183249       0.00264199       0.00099267      -0.30001349      -0.57861880       0.08389802      -4.53964088 F F F
 Si            41.04076316      32.81269268      30.10482197      -0.00183960      -0.00154371       0.00587655      -0.18337095       0.11307768       0.52924655      -4.64447999 F F F
 Si            42.34767454      34.22276856      31.54628390       0.00316049       0.00167748       0.00359703       0.38827509      -0.01653556      -1.05055856      -4.57181164 F F F
 Si            38.29618126      35.49694598      29.98871401      -0.00616728       0.00061415      -0.00592338      -0.07887628      -0.00210894       0.16595028      -4.61925926 F F F
 Si            39.55822497      36.92254140      31.34827232      -0.00135032      -0.00329447      -0.00523604       0.28423866       0.19917010       0.47294759      -4.57477294 F F F
 Si            43.58537656      32.81344663      27.42476754       0.00281858       0.00243218       0.00516086       0.57466755      -0.08386043      -0.43823983      -4.68227193 F F F
 Si            45.13277151      34.14004610      28.72313378       0.00059618       0.00104403      -0.00254721      -0.13702993       0.49001783      -0.54765509      -4.63671542 F F F
 Si            46.45871393      35.68447557      27.31931594      -0.00226847      -0.00065664      -0.00301692      -0.74276042      -1.46374713      -0.23450368      -4.48692410 F F F
 Si            47.77582243      37.01810926      28.56285898       0.00271284       0.00279702       0.00095212       0.91623792       0.49085967       0.77223820      -4.52001779 F F F
 Si            46.57035597      32.84036344      30.03034578      -0.00060661      -0.00127018       0.00245322      -0.78742908      -0.69007278       0.35214197      -4.62791594 F F F
 Si            47.75138764      34.30641050      31.40749318       0.00061784       0.00196404      -0.00238147       0.51350395      -0.75039721      -0.22038939      -4.49215625 F F F
 Si            43.78099734      35.53202373      30.08783786       0.00132018       0.00374458      -0.00373282      -0.07616948      -0.17937608       0.42171523      -4.67292836 F F F
 Si            45.12664226      36.92566804      31.48360407      -0.00438013      -0.00216145      -0.00210753      -0.25552551       0.30537830      -0.44681790      -4.61391440 F F F
 Si            49.33654795      32.81737150      27.39008671       0.00142080       0.00250395       0.00047542      -0.68219872       0.12129357      -1.09035730      -4.58718192 F F F
 Si            50.62661700      34.09779016      28.79350534       0.00069310      -0.00281386       0.00361717      -0.05452033       0.60293260       0.18936389      -4.54388115 F F F
 Si            51.87864229      35.53644499      27.38837128      -0.00006768       0.00215669      -0.00452936       0.17575844      -0.19781525      -0.03699025      -4.63721607 F F F
 Si            53.26791009      36.80710615      28.81657056       0.00079335       0.00306906      -0.00132627       0.55513645       0.09459077      -0.50910036      -4.55020405 F F F
 Si            51.93733420      32.80889246      30.29276953      -0.00414049      -0.00452087       0.00180269       0.08599181       0.40092791      -0.34564799      -4.53903627 F F F
 Si            53.45222689      34.19205800      31.50653687       0.00193228       0.00290900      -0.00392743      -0.95423138       0.47901432       0.32727144      -4.66361906 F F F
 Si            49.06098649      35.52667573      29.90062577      -0.00397616       0.00033932      -0.00317669       0.73090314       0.26743843       0.52898879      -4.66144199 F F F
 Si            50.44261681      36.79760991      31.43226718       0.00021573       0.00128063       0.00306685       0.13926693       0.71349164      -0.47325062      -4.62538127 F F F
 Si            54.69795358      32.69824018      27.32569531       0.00374963       0.00164726      -0.00231498      -0.86152430       0.67879219       0.69430562      -4.61103788 F F F
 Si             1.29290035      34.15564494      28.69711070      -0.00263390       0.00218677       0.00419054      -0.14635763       0.16524944      -0.58432082      -4.44192935 F F F
 Si             2.64698884      35.53274597      27.37939809      -0.00219884       0.00261046       0.00329706       1.30457560      -0.10834269       0.12020054      -4.67165407 F F F
 Si             4.09754688      36.89620572      28.78076178      -0.00452983      -0.00357789      -0.00182072      -1.00210403      -0.01623434      -0.20350763      -4.65340697 F F F
 Si             2.61091021      32.94105262      30.08764690      -0.00068889      -0.00038601       0.00069650       0.26706919      -1.45533036      -0.10628060      -4.52280799 F F F
 Si             3.95708866      34.19561117      31.41192732      -0.00167912      -0.00240724       0.00397930       1.01291775       0.40962956       0.79347371      -4.52221938 F F F
 Si             0.14174705      35.58008450      30.14617374       0.00498041      -0.00572159      -0.00006917      -0.73682751      -0.19725354       0.04372030      -4.62896637 F F F
 Si             1.45252945      36.93264719      31.58814543       0.00269363      -0.00246588      -0.00400471      -0.26350110      -0.53011022       0.25255292      -4.58403186 F F F
 Si             5.51231997      32.81849142      27.38393959      -0.00452676       0.00385384      -0.00101573      -0.28740951      -0.58655595       0.16484413      -4.57216088 F F F
 Si             6.85778890      34.07502376      28.81526970       0.00147096       0.00523158       0.00240653      -0.57691650       0.63041217       0.20405043      -4.61162768 F F F
 Si             8.09225661      35.51774960      27.45354146       0.00084398      -0.00128720      -0.00175008       0.44332970      -0.21185350      -0.92828323      -4.61508559 F F F
 Si             9.42341627      36.93198902      28.70720496       0.00182055      -0.00287501       0.00180595       0.81981876       0.05401081       0.75624077      -4.57185080 F F F
 Si             8.27759330      32.80162156      30.16003486       0.00061870       0.00103409       0.00053002      -1.03492581      -1.18172128      -0.74648812      -4.50398108 F F F
 Si             9.58505426      34.14263475      31.33593286      -0.00403661      -0.00102281       0.00171277       0.54874937       0.75194794       0.67362051      -4.27047411 F F F
 Si             5.41195507      35.52238126      30.13650308      -0.00013003       0.00059759       0.00341074       0.44890411      -0.27829320      -0.29206433      -4.62542353 F F F
 Si             6.81661457      36.82102398      31.50729579       0.00058380       0.00147535       0.00254449      -0.35417490       0.26885423       0.24950974      -4.60155860 F F F
 Si            10.93409842      32.70279471      27.37642291      -0.00022060       0.00318246       0.00611649      -0.12074093       1.20138422      -0.25890727      -4.54799162 F F F
 Si            12.24508948      34.22620212      28.63425792      -0.00095622       0.00068122       0.00578540      -0.12859800      -0.65036835       0.40638594      -4.53810401 F F F
 Si            13.59709787      35.60914999      27.36748978      -0.00335258       0.00263845       0.00548299       1.06282626      -0.48748291      -0.47181444      -4.58105742 F F F
 Si            15.00659541      36.97637253      28.72700783       0.00292650      -0.00288705      -0.00620572       0.03985078      -1.00027298      -0.17413354      -4.47818660 F F F
 Si            13.43498642      32.82271517      30.14780346      -0.00304627       0.00470033      -0.00016749       0.57827911      -0.54543048      -0.70117079      -4.68728029 F F F
 Si            14.88204468      34.06207243      31.48806663       0.00020949       0.00003703      -0.00283766       0.87789636      -0.25787467      -0.87979043      -4.48878924 F F F
 Si            10.90487721      35.52861239      30.00842439      -0.00038096      -0.00132632       0.00355979      -0.38512709       0.63444202      -0.04696200      -4.65931474 F F F
 Si            12.26073868      36.81255642      31.47314839      -0.00084257      -0.00258233      -0.00182421       0.08552789       0.19924333      -0.29960918      -4.66645585 F F F
 Si            16.37555779      32.74577502      27.41257793      -0.00049517       0.00601061      -0.00005658      -0.32030444       0.45762710      -0.26632415      -4.55758677 F F F
 Si            17.68462034      34.18517827      28.72467849       0.00204425      -0.00069361      -0.00244537       0.30733894       0.15049556       0.09149185      -4.65073478 F F F
 Si            19.08553089      35.62426435      27.40732114       0.00034602      -0.00142155       0.00446551       0.35618745      -0.98884936      -0.29141612      -4.58122318 F F F
 Si            20.49564701      36.74747027      28.88461290       0.00429488      -0.00339924      -0.00196528      -0.01092136       1.29941559      -0.85325505      -4.60202025 F F F
 Si            19.20137482      32.84158749      29.99921616       0.00133059       0.00660343       0.00329175      -0.21239595       0.34037438       0.05872349      -4.63780278 F F F
 Si            20.43885878      34.17604578      31.52435073      -0.00602279       0.00053108       0.00175867       0.14320438      -0.14793225      -0.51355922      -4.66469389 F F F
 Si            16.24398078      35.49232128      30.12361792      -0.00010031      -0.00272069      -0.00024084       0.00970882      -0.39518790      -0.35108794      -4.68848465 F F F
 Si            17.61019378      36.75645994      31.51885654      -0.00050505      -0.00106102      -0.00029517       0.46741413       0.54714862      -0.49481674      -4.53326397 F F F
 Si            21.91939068      32.84425112      27.32924002      -0.00145704       0.00761506      -0.00083227      -0.04137533       0.81649569      -0.57892917      -4.59830133 F F F
 Si            23.25469869      34.31626280      28.67037891      -0.00067190       0.00485385       0.00107717       0.32111749      -1.33855436      -0.00042576      -4.53856698 F F F
 Si            24.63746279      35.65882267      27.36334528       0.00372593       0.00483237       0.00262716       0.82360234       0.35509956      -0.11748409      -4.63216998 F F F
 Si            26.09528973      37.03802756      28.84110903       0.00266293       0.00061764       0.00115352      -0.77392060      -0.87031528      -0.79458636      -4.53854021 F F F
 Si            24.48337228      32.81752627      30.12381744       0.00573806      -0.00042603      -0.00500718       0.07795237       0.82020711      -0.21477487      -4.53813974 F F F